# Probe 0 (0.0254 0.0253 0)
# Probe 1 (0.0508 0.0253 0)
# Probe 2 (0.0762 0.0253 0)
# Probe 3 (0.1016 0.0253 0)
# Probe 4 (0.127 0.0253 0)
# Probe 5 (0.1524 0.0253 0)
# Probe 6 (0.1778 0.0253 0)
#       Probe             0             1             2             3             4             5             6
#        Time
       4e-005             0             0             0             0             0             0             0
       8e-005             0             0             0             0             0             0             0
      0.00012             0             0             0             0             0             0             0
      0.00016             0             0             0             0             0             0             0
       0.0002             0             0             0             0             0             0             0
      0.00024             0             0             0             0             0             0             0
      0.00028             0             0             0             0             0             0             0
      0.00032             0             0             0             0             0             0             0
      0.00036             0             0             0             0             0             0             0
       0.0004             0             0             0             0             0             0             0
      0.00044             0             0             0             0             0             0             0
      0.00048             0             0             0             0             0             0             0
      0.00052             0             0             0             0             0             0             0
      0.00056             0             0             0             0             0             0             0
       0.0006             0             0             0             0             0             0             0
      0.00064             0             0             0             0             0             0             0
      0.00068             0             0             0             0             0             0             0
      0.00072             0             0             0             0             0             0             0
      0.00076             0             0             0             0             0             0             0
       0.0008             0             0             0             0             0             0             0
      0.00084             0             0             0             0             0             0             0
      0.00088             0             0             0             0             0             0             0
      0.00092             0             0             0             0             0             0             0
      0.00096             0             0             0             0             0             0             0
        0.001             0             0             0             0             0             0             0
      0.00104             0             0             0             0             0             0             0
      0.00108             0             0             0             0             0             0             0
      0.00112             0             0             0             0             0             0             0
      0.00116             0             0             0             0             0             0             0
       0.0012             0             0             0             0             0             0             0
      0.00124             0             0             0             0             0             0             0
      0.00128             0             0             0             0             0             0             0
